 Gaussian 09, Revision D.01,
 Gaussian 09:  EM64L-G09RevD.01 24-Apr-2013

 ---------------------------------------------
 # opt=modredundant hf/6-31g geom=connectivity
 ---------------------------------------------

 -------------------
 Title Card Required
 -------------------
 Symbolic Z-matrix:
 Charge =  0 Multiplicity = 1

 SCF Done:  E(RHF) =  -659.192814545     A.U. after   10 cycles
 SCF Done:  E(RHF) =  -659.235340980     A.U. after   10 cycles
 SCF Done:  E(RHF) =  -659.238543239     A.U. after    9 cycles
 SCF Done:  E(RHF) =  -659.238937785     A.U. after    8 cycles
 SCF Done:  E(RHF) =  -659.238963921     A.U. after    8 cycles
 SCF Done:  E(RHF) =  -659.238968999     A.U. after    7 cycles
 SCF Done:  E(RHF) =  -659.238970195     A.U. after    6 cycles
 SCF Done:  E(RHF) =  -659.238970618     A.U. after    7 cycles
 Optimization completed.
    -- Stationary point found.
 SCF Done:  E(RHF) =  -659.238002915     A.U. after    9 cycles
 SCF Done:  E(RHF) =  -659.239315375     A.U. after    9 cycles
 Optimization completed.
 SCF Done:  E(RHF) =  -659.247251558     A.U. after    9 cycles
 SCF Done:  E(RHF) =  -659.248525369     A.U. after    9 cycles
 SCF Done:  E(RHF) =  -659.248545663     A.U. after    8 cycles
 SCF Done:  E(RHF) =  -659.248161565     A.U. after    9 cycles
 SCF Done:  E(RHF) =  -659.249332350     A.U. after    9 cycles
 SCF Done:  E(RHF) =  -659.249347209     A.U. after    8 cycles
 SCF Done:  E(RHF) =  -659.249347244     A.U. after    6 cycles
    -- Stationary point found.
 SCF Done:  E(RHF) =  -659.248506790     A.U. after    9 cycles
 SCF Done:  E(RHF) =  -659.249619187     A.U. after    9 cycles
 SCF Done:  E(RHF) =  -659.249635216     A.U. after    8 cycles
 Optimization completed.
    -- Stationary point found.

                         Standard orientation:
 ---------------------------------------------------------------------
 Center     Atomic      Atomic             Coordinates (Angstroms)
 Number     Number       Type             X           Y           Z
 ---------------------------------------------------------------------
      1         14           0        2.337647   -0.051422    0.000007
      2          1           0        2.594543   -0.889215   -1.212057
      3          1           0        2.594858   -0.888397    1.212558
      4          1           0        3.299610    1.093828   -0.000515
      5          6           0        0.516462    0.573358    0.000004
      6          1           0        0.375963    1.209353    0.869873
      7          1           0        0.376012    1.209234   -0.869973
      8          6           0       -0.516463   -0.573360    0.000004
      9          1           0       -0.375964   -1.209357    0.869871
     10          1           0       -0.376013   -1.209233   -0.869975
     11         14           0       -2.337647    0.051423    0.000007
     12          1           0       -2.594537    0.889223   -1.212053
     13          1           0       -3.299612   -1.093825   -0.000524
     14          1           0       -2.594860    0.888391    1.212562
 ---------------------------------------------------------------------

 The electronic state is 1-A.
 Alpha  occ. eigenvalues --  -68.77622 -68.77622 -11.23122 -11.23070  -6.14265
 Alpha  occ. eigenvalues --   -6.14265  -4.24777  -4.24777  -4.24770  -4.24770
 Alpha  occ. eigenvalues --   -4.24688  -4.24688  -1.03104  -0.85940  -0.72051
 Alpha  occ. eigenvalues --   -0.70821  -0.62403  -0.53495  -0.51579  -0.51251
 Alpha  occ. eigenvalues --   -0.46748  -0.46528  -0.46445  -0.46208  -0.39028
 Alpha virt. eigenvalues --    0.14569   0.15472   0.19250   0.19469   0.19962
 Alpha virt. eigenvalues --    0.20673   0.26652   0.27510   0.28144   0.29284
 Alpha virt. eigenvalues --    0.29986   0.30591   0.34021   0.38088   0.39994

 Mulliken charges:
               1
     1  Si   0.908344
     2  H   -0.198234
     3  H   -0.198232
     4  H   -0.198391
     5  C   -0.681950
     6  H    0.184233
     7  H    0.184231
     8  C   -0.681950
     9  H    0.184233
    10  H    0.184231
    11  Si   0.908344
    12  H   -0.198234
    13  H   -0.198391
    14  H   -0.198232
 Sum of Mulliken charges =   0.00000

 Dipole moment (field-independent basis, Debye):
    X=              0.0000    Y=              0.0000    Z=              0.0000  Tot=              0.0000
 Quadrupole moment (field-independent basis, Debye-Ang):
   XX=            -50.4235   YY=            -46.1386   ZZ=            -46.0131
   XY=              0.5999   XZ=              0.0000   YZ=              0.0000

 Normal termination of Gaussian 09 at Tue Sep  6 18:07:28 2016.
