 Gaussian 09, Revision D.01,
 Gaussian 09:  EM64L-G09RevD.01 24-Apr-2013

 ---------------------------------------------
 # opt=modredundant hf/6-31g geom=connectivity
 ---------------------------------------------

 -------------------
 Title Card Required
 -------------------
 Symbolic Z-matrix:
 Charge =  0 Multiplicity = 1

 SCF Done:  E(RHF) =  -598.655412828     A.U. after   13 cycles
 SCF Done:  E(RHF) =  -598.691507942     A.U. after   14 cycles
 SCF Done:  E(RHF) =  -598.695332552     A.U. after   12 cycles
 SCF Done:  E(RHF) =  -598.697291941     A.U. after   14 cycles
 SCF Done:  E(RHF) =  -598.698757458     A.U. after   14 cycles
 SCF Done:  E(RHF) =  -598.699330722     A.U. after   12 cycles
 SCF Done:  E(RHF) =  -598.699797809     A.U. after   13 cycles
 SCF Done:  E(RHF) =  -598.699852349     A.U. after   11 cycles
 SCF Done:  E(RHF) =  -598.699936176     A.U. after   11 cycles
 SCF Done:  E(RHF) =  -598.700034500     A.U. after   12 cycles
 Optimization completed.
    -- Stationary point found.
 Optimization completed.
 SCF Done:  E(RHF) =  -598.702744475     A.U. after   11 cycles
 SCF Done:  E(RHF) =  -598.702745006     A.U. after   10 cycles
 SCF Done:  E(RHF) =  -598.702745100     A.U. after    9 cycles
 SCF Done:  E(RHF) =  -598.702745105     A.U. after    7 cycles
    -- Stationary point found.
 SCF Done:  E(RHF) =  -598.701333993     A.U. after   13 cycles
 SCF Done:  E(RHF) =  -598.702859704     A.U. after   12 cycles
 SCF Done:  E(RHF) =  -598.702891646     A.U. after   12 cycles
 SCF Done:  E(RHF) =  -598.702892826     A.U. after   11 cycles
 SCF Done:  E(RHF) =  -598.702893410     A.U. after   11 cycles
 SCF Done:  E(RHF) =  -598.702893445     A.U. after    9 cycles
 Optimization completed.
    -- Stationary point found.

                         Standard orientation:
 ---------------------------------------------------------------------
 Center     Atomic      Atomic             Coordinates (Angstroms)
 Number     Number       Type             X           Y           Z
 ---------------------------------------------------------------------
      1          6           0        1.195082   -1.197867   -0.138481
      2          6           0        2.538340   -1.200406    0.210125
      3          6           0        3.211705   -0.000139    0.386218
      4          6           0        2.538454    1.200241    0.210448
      5          6           0        1.195197    1.197926   -0.138160
      6          6           0        0.498546    0.000086   -0.312701
      7          1           0        0.691501   -2.136670   -0.279332
      8          1           0        3.056309   -2.131616    0.339300
      9          1           0        4.251121   -0.000226    0.653668
     10          1           0        3.056514    2.131366    0.339870
     11          1           0        0.691704    2.136813   -0.278770
     12         14           0       -1.360639    0.000265   -0.755306
     13          1           0       -1.665448    1.216357   -1.572847
     14          1           0       -1.665531   -1.215234   -1.573698
     15          6           0       -2.486307   -0.000261    0.803310
     16          1           0       -2.235899   -0.869454    1.405550
     17          1           0       -2.235863    0.868519    1.406132
     18          6           0       -3.987250   -0.000127    0.473147
     19          1           0       -4.266022   -0.875744   -0.103628
     20          1           0       -4.586047   -0.000368    1.377724
     21          1           0       -4.265990    0.875829   -0.103130
 ---------------------------------------------------------------------

 The electronic state is 1-A.
 Alpha  occ. eigenvalues --  -68.77518 -11.23995 -11.23987 -11.23889 -11.23592
 Alpha  occ. eigenvalues --  -11.23568 -11.23220 -11.21756 -11.21472  -6.13887
 Alpha  occ. eigenvalues --   -4.24441  -4.24385  -4.24313  -1.15657  -1.02537
 Alpha  occ. eigenvalues --   -1.01953  -1.01439  -0.85272  -0.82687  -0.81959
 Alpha  occ. eigenvalues --   -0.72463  -0.67789  -0.62667  -0.62482  -0.60696
 Alpha  occ. eigenvalues --   -0.58963  -0.57510  -0.54066  -0.51580  -0.50194
 Alpha  occ. eigenvalues --   -0.49741  -0.48902  -0.45603  -0.43544  -0.41419
 Alpha  occ. eigenvalues --   -0.33681  -0.33284
 Alpha virt. eigenvalues --    0.12457   0.14382   0.18166   0.19749   0.23270
 Alpha virt. eigenvalues --    0.25062   0.26826   0.28065   0.29363   0.30045
 Alpha virt. eigenvalues --    0.31449   0.31805   0.32779   0.33066   0.33988

 Mulliken charges:
               1
     1  C   -0.211206
     2  C   -0.189417
     3  C   -0.200805
     4  C   -0.189415
     5  C   -0.211211
     6  C   -0.368150
     7  H    0.195274
     8  H    0.199836
     9  H    0.201473
    10  H    0.199836
    11  H    0.195278
    12  Si   1.118881
    13  H   -0.212760
    14  H   -0.212757
    15  C   -0.694567
    16  H    0.177316
    17  H    0.177318
    18  C   -0.443801
    19  H    0.154822
    20  H    0.159233
    21  H    0.154821
 Sum of Mulliken charges =   0.00000

 Dipole moment (field-independent basis, Debye):
    X=              0.4210    Y=             -0.0003    Z=              0.7819  Tot=              0.8880
 Quadrupole moment (field-independent basis, Debye-Ang):
   XX=            -60.0099   YY=            -60.4581   ZZ=            -68.8427
   XY=              0.0002   XZ=              0.5842   YZ=              0.0011

 Normal termination of Gaussian 09 at Wed Sep  7 12:36:32 2016.
