 Gaussian 09, Revision D.01,
 Gaussian 09:  EM64L-G09RevD.01 24-Apr-2013

 ---------------------------------------------
 # opt=modredundant hf/6-31g geom=connectivity
 ---------------------------------------------

 -------------------
 Title Card Required
 -------------------
 Symbolic Z-matrix:
 Charge =  0 Multiplicity = 1

 SCF Done:  E(RHF) =  -408.251106703     A.U. after   11 cycles
 SCF Done:  E(RHF) =  -408.255678355     A.U. after   10 cycles
 SCF Done:  E(RHF) =  -408.256029134     A.U. after    9 cycles
 SCF Done:  E(RHF) =  -408.256042046     A.U. after    8 cycles
 Optimization completed.
    -- Stationary point found.
 SCF Done:  E(RHF) =  -408.254470458     A.U. after   10 cycles
 SCF Done:  E(RHF) =  -408.256059917     A.U. after    9 cycles
 SCF Done:  E(RHF) =  -408.256207191     A.U. after    9 cycles
 SCF Done:  E(RHF) =  -408.256228500     A.U. after    8 cycles
 SCF Done:  E(RHF) =  -408.256230867     A.U. after    7 cycles
 SCF Done:  E(RHF) =  -408.256230967     A.U. after    6 cycles
 Optimization completed.
 SCF Done:  E(RHF) =  -408.258415945     A.U. after    9 cycles
 SCF Done:  E(RHF) =  -408.258452362     A.U. after    8 cycles
 SCF Done:  E(RHF) =  -408.257236934     A.U. after    9 cycles
 SCF Done:  E(RHF) =  -408.258800732     A.U. after    9 cycles
 SCF Done:  E(RHF) =  -408.258833333     A.U. after    8 cycles
 SCF Done:  E(RHF) =  -408.258833704     A.U. after    7 cycles
    -- Stationary point found.
 SCF Done:  E(RHF) =  -408.257398174     A.U. after    9 cycles
 SCF Done:  E(RHF) =  -408.258942237     A.U. after    9 cycles
 SCF Done:  E(RHF) =  -408.258972239     A.U. after    8 cycles
 SCF Done:  E(RHF) =  -408.258972350     A.U. after    6 cycles
 Optimization completed.
    -- Stationary point found.

                         Standard orientation:
 ---------------------------------------------------------------------
 Center     Atomic      Atomic             Coordinates (Angstroms)
 Number     Number       Type             X           Y           Z
 ---------------------------------------------------------------------
      1          6           0       -0.961148   -0.672106    0.000003
      2          1           0       -0.883757   -1.319930   -0.869605
      3          1           0       -0.883904   -1.320118    0.869491
      4         14           0        0.545107    0.522666   -0.000002
      5          1           0        0.471603    1.408170    1.207974
      6          1           0        0.471456    1.408171   -1.207952
      7          6           0        2.209611   -0.426656   -0.000003
      8          1           0        2.293917   -1.057791   -0.878091
      9          1           0        3.046586    0.262586   -0.000112
     10          1           0        2.293949   -1.057558    0.878254
     11          6           0       -2.320518    0.044903    0.000007
     12          1           0       -3.138718   -0.667486   -0.000224
     13          1           0       -2.435241    0.674715    0.875817
     14          1           0       -2.435065    0.675078   -0.875568
 ---------------------------------------------------------------------

 The electronic state is 1-A.
 Alpha  occ. eigenvalues --  -68.77125 -11.21705 -11.21486 -11.20770  -6.13535
 Alpha  occ. eigenvalues --   -4.24077  -4.24035  -4.23969  -1.02342  -0.94699
 Alpha  occ. eigenvalues --   -0.84633  -0.68492  -0.60847  -0.56978  -0.55887
 Alpha  occ. eigenvalues --   -0.55608  -0.51038  -0.49393  -0.44763  -0.43711
 Alpha  occ. eigenvalues --   -0.40874
 Alpha virt. eigenvalues --    0.17364   0.18760   0.23430   0.24676   0.27572
 Alpha virt. eigenvalues --    0.28225   0.30297   0.31439   0.32346   0.32862
 Alpha virt. eigenvalues --    0.33599   0.34044   0.38708   0.42388   0.45702

 Mulliken charges:
               1
     1  C   -0.699937
     2  H    0.173276
     3  H    0.173282
     4  Si   1.079299
     5  H   -0.212398
     6  H   -0.212397
     7  C   -0.858729
     8  H    0.175503
     9  H    0.178639
    10  H    0.175505
    11  C   -0.439261
    12  H    0.157526
    13  H    0.154848
    14  H    0.154844
 Sum of Mulliken charges =   0.00000

 Dipole moment (field-independent basis, Debye):
    X=              0.0115    Y=             -0.7370    Z=             -0.0001  Tot=              0.7371
 Quadrupole moment (field-independent basis, Debye-Ang):
   XX=            -36.3905   YY=            -37.6913   ZZ=            -37.1830
   XY=             -0.0330   XZ=             -0.0002   YZ=             -0.0002

 Normal termination of Gaussian 09 at Tue Sep  6 18:35:14 2016.
