 Gaussian 09, Revision D.01,
 Gaussian 09:  EM64L-G09RevD.01 24-Apr-2013

 ---------------------------------------------
 # opt=modredundant hf/6-31g geom=connectivity
 ---------------------------------------------

 -------------------
 Title Card Required
 -------------------
 Symbolic Z-matrix:
 Charge =  0 Multiplicity = 1

 SCF Done:  E(RHF) =  -446.074670448     A.U. after   12 cycles
 SCF Done:  E(RHF) =  -446.080904785     A.U. after   12 cycles
 SCF Done:  E(RHF) =  -446.082120088     A.U. after   12 cycles
 SCF Done:  E(RHF) =  -446.082665746     A.U. after   13 cycles
 SCF Done:  E(RHF) =  -446.082727204     A.U. after   11 cycles
 SCF Done:  E(RHF) =  -446.082730179     A.U. after    9 cycles
 SCF Done:  E(RHF) =  -446.082732889     A.U. after    9 cycles
 Optimization completed.
    -- Stationary point found.
 SCF Done:  E(RHF) =  -446.081196609     A.U. after   11 cycles
 SCF Done:  E(RHF) =  -446.082778965     A.U. after   11 cycles
 SCF Done:  E(RHF) =  -446.082917756     A.U. after   10 cycles
 Optimization completed.
 SCF Done:  E(RHF) =  -446.085070966     A.U. after   11 cycles
 SCF Done:  E(RHF) =  -446.085106546     A.U. after    9 cycles
 SCF Done:  E(RHF) =  -446.083903330     A.U. after   11 cycles
 SCF Done:  E(RHF) =  -446.085437578     A.U. after   11 cycles
 SCF Done:  E(RHF) =  -446.085469326     A.U. after    9 cycles
 SCF Done:  E(RHF) =  -446.085469421     A.U. after    7 cycles
    -- Stationary point found.
 SCF Done:  E(RHF) =  -446.084029013     A.U. after   11 cycles
 SCF Done:  E(RHF) =  -446.085541660     A.U. after   11 cycles
 SCF Done:  E(RHF) =  -446.085569977     A.U. after    9 cycles
 SCF Done:  E(RHF) =  -446.085570099     A.U. after    8 cycles
 Optimization completed.
    -- Stationary point found.

                         Standard orientation:
 ---------------------------------------------------------------------
 Center     Atomic      Atomic             Coordinates (Angstroms)
 Number     Number       Type             X           Y           Z
 ---------------------------------------------------------------------
      1          6           0       -2.741441    0.022969    0.206248
      2          1           0       -2.758849   -0.603088    1.092084
      3          1           0       -2.993098   -0.602359   -0.643788
      4          1           0       -3.528025    0.762344    0.312991
      5          6           0       -1.371561    0.695235    0.022303
      6          1           0       -1.389173    1.340666   -0.852223
      7          1           0       -1.154378    1.338042    0.870874
      8         14           0        0.075085   -0.555618   -0.170934
      9          1           0       -0.208003   -1.432477   -1.353600
     10          1           0        0.158031   -1.426457    1.044457
     11          6           0        1.750908    0.311350   -0.395987
     12          1           0        1.866319    0.955268   -1.254103
     13          6           0        2.779872    0.173668    0.433280
     14          1           0        2.734203   -0.454095    1.305142
     15          1           0        3.715124    0.681475    0.276178
 ---------------------------------------------------------------------

 The electronic state is 1-A.
 Alpha  occ. eigenvalues --  -68.77426 -11.23863 -11.22639 -11.21776 -11.21537
 Alpha  occ. eigenvalues --   -6.13823  -4.24369  -4.24326  -4.24257  -1.04001
 Alpha  occ. eigenvalues --   -1.02236  -0.85230  -0.78751  -0.69452  -0.62504
 Alpha  occ. eigenvalues --   -0.60749  -0.57781  -0.55197  -0.51263  -0.49707
 Alpha  occ. eigenvalues --   -0.45648  -0.43812  -0.41929  -0.36851
 Alpha virt. eigenvalues --    0.14446   0.18388   0.19890   0.23379   0.25492
 Alpha virt. eigenvalues --    0.27425   0.28955   0.29983   0.31295   0.31509
 Alpha virt. eigenvalues --    0.33304   0.33853   0.35869   0.39250   0.41198

 Mulliken charges:
               1
     1  C   -0.441168
     2  H    0.154972
     3  H    0.155314
     4  H    0.158813
     5  C   -0.698227
     6  H    0.174298
     7  H    0.179393
     8  Si   1.082410
     9  H   -0.208272
    10  H   -0.211855
    11  C   -0.541843
    12  H    0.172119
    13  C   -0.307232
    14  H    0.165845
    15  H    0.165433
 Sum of Mulliken charges =   0.00000

 Dipole moment (field-independent basis, Debye):
    X=              0.1374    Y=              0.7584    Z=              0.0802  Tot=              0.7749
 Quadrupole moment (field-independent basis, Debye-Ang):
   XX=            -39.7078   YY=            -43.3895   ZZ=            -41.9676
   XY=              0.6596   XZ=              0.6535   YZ=             -1.3886

 Normal termination of Gaussian 09 at Wed Sep  7 12:46:19 2016.
