 Gaussian 09, Revision D.01,
 Gaussian 09:  EM64L-G09RevD.01 24-Apr-2013

 ---------------------------------------------
 # opt=modredundant hf/6-31g geom=connectivity
 ---------------------------------------------

 -------------------
 Title Card Required
 -------------------
 Symbolic Z-matrix:
 Charge =  0 Multiplicity = 1

 SCF Done:  E(RHF) =  -559.684594323     A.U. after   14 cycles
 SCF Done:  E(RHF) =  -559.687441241     A.U. after   12 cycles
 SCF Done:  E(RHF) =  -559.687595204     A.U. after   11 cycles
 SCF Done:  E(RHF) =  -559.687602010     A.U. after    9 cycles
 SCF Done:  E(RHF) =  -559.687602541     A.U. after    8 cycles
 Optimization completed.
    -- Stationary point found.
 SCF Done:  E(RHF) =  -559.686586816     A.U. after   11 cycles
 SCF Done:  E(RHF) =  -559.687514179     A.U. after   11 cycles
 SCF Done:  E(RHF) =  -559.687621441     A.U. after    9 cycles
 SCF Done:  E(RHF) =  -559.687641156     A.U. after   10 cycles
 SCF Done:  E(RHF) =  -559.687644549     A.U. after    8 cycles
 Optimization completed.
 SCF Done:  E(RHF) =  -559.687754332     A.U. after    9 cycles
 SCF Done:  E(RHF) =  -559.687754594     A.U. after    8 cycles
 SCF Done:  E(RHF) =  -559.686594730     A.U. after   12 cycles
 SCF Done:  E(RHF) =  -559.687630314     A.U. after   12 cycles
 SCF Done:  E(RHF) =  -559.687643136     A.U. after    9 cycles
 SCF Done:  E(RHF) =  -559.687643237     A.U. after    8 cycles
    -- Stationary point found.
 SCF Done:  E(RHF) =  -559.686540235     A.U. after   12 cycles
 SCF Done:  E(RHF) =  -559.687588206     A.U. after   12 cycles
 SCF Done:  E(RHF) =  -559.687602537     A.U. after   10 cycles
 SCF Done:  E(RHF) =  -559.687602610     A.U. after    8 cycles
 Optimization completed.
    -- Stationary point found.

                         Standard orientation:
 ---------------------------------------------------------------------
 Center     Atomic      Atomic             Coordinates (Angstroms)
 Number     Number       Type             X           Y           Z
 ---------------------------------------------------------------------
      1          6           0       -1.790741   -1.383043    0.000000
      2          6           0       -0.433133   -1.087345   -0.000005
      3          6           0        0.015415    0.233365    0.000008
      4          6           0       -0.940558    1.252887   -0.000013
      5          6           0       -2.296165    0.962873    0.000004
      6          6           0       -2.723845   -0.358368    0.000002
      7          1           0       -2.114955   -2.406313    0.000007
      8          1           0        0.273482   -1.895760   -0.000019
      9          1           0       -0.628547    2.281550   -0.000061
     10          1           0       -3.014509    1.760414    0.000017
     11          1           0       -3.773004   -0.584504    0.000035
     12         14           0        1.882073    0.658398    0.000006
     13          1           0        2.200545    1.493032    1.201937
     14          1           0        2.200394    1.493108   -1.201888
     15          6           0        2.981844   -0.905473   -0.000013
     16          1           0        4.028384   -0.621577    0.000062
     17          1           0        2.801083   -1.513463    0.879302
     18          1           0        2.801196   -1.513442   -0.879367
 ---------------------------------------------------------------------

 The electronic state is 1-A.
 Alpha  occ. eigenvalues --  -68.77934 -11.23980 -11.23949 -11.23847 -11.23585
 Alpha  occ. eigenvalues --  -11.23558 -11.23297 -11.21149  -6.14258  -4.24802
 Alpha  occ. eigenvalues --   -4.24767  -4.24715  -1.15654  -1.01951  -1.01732
 Alpha  occ. eigenvalues --   -0.95105  -0.82698  -0.82279  -0.72461  -0.67819
 Alpha  occ. eigenvalues --   -0.62547  -0.62304  -0.59032  -0.56691  -0.56550
 Alpha  occ. eigenvalues --   -0.53702  -0.50767  -0.48989  -0.45752  -0.44615
 Alpha  occ. eigenvalues --   -0.42942  -0.33681  -0.33369
 Alpha virt. eigenvalues --    0.12902   0.14511   0.17362   0.19216   0.23311
 Alpha virt. eigenvalues --    0.25204   0.26918   0.28434   0.29106   0.29401
 Alpha virt. eigenvalues --    0.31259   0.32588   0.34505   0.35179   0.35346

 Mulliken charges:
               1
     1  C   -0.187892
     2  C   -0.213829
     3  C   -0.362936
     4  C   -0.209093
     5  C   -0.188979
     6  C   -0.201388
     7  H    0.199194
     8  H    0.195028
     9  H    0.195312
    10  H    0.200187
    11  H    0.201402
    12  Si   1.102175
    13  H   -0.204555
    14  H   -0.204557
    15  C   -0.864375
    16  H    0.183491
    17  H    0.180407
    18  H    0.180408
 Sum of Mulliken charges =   0.00000

 Dipole moment (field-independent basis, Debye):
    X=             -0.3965    Y=             -0.6790    Z=              0.0000  Tot=              0.7863
 Quadrupole moment (field-independent basis, Debye-Ang):
   XX=            -52.8853   YY=            -54.2895   ZZ=            -62.2112
   XY=             -1.5714   XZ=             -0.0003   YZ=             -0.0001

 Normal termination of Gaussian 09 at Wed Sep  7 12:13:37 2016.
