 Gaussian 09, Revision D.01,
 Gaussian 09:  EM64L-G09RevD.01 24-Apr-2013

 ---------------------------------------------
 # opt=modredundant hf/6-31g geom=connectivity
 ---------------------------------------------

 -------------------
 Title Card Required
 -------------------
 Symbolic Z-matrix:
 Charge =  0 Multiplicity = 1

 SCF Done:  E(RHF) =  -698.276177768     A.U. after   11 cycles
 SCF Done:  E(RHF) =  -698.281700860     A.U. after   10 cycles
 SCF Done:  E(RHF) =  -698.282130111     A.U. after    9 cycles
 SCF Done:  E(RHF) =  -698.282155811     A.U. after    8 cycles
 SCF Done:  E(RHF) =  -698.282158351     A.U. after    7 cycles
 SCF Done:  E(RHF) =  -698.282158888     A.U. after    7 cycles
 Optimization completed.
    -- Stationary point found.
 SCF Done:  E(RHF) =  -698.280572787     A.U. after   10 cycles
 SCF Done:  E(RHF) =  -698.282189100     A.U. after    9 cycles
 SCF Done:  E(RHF) =  -698.282333437     A.U. after    9 cycles
 SCF Done:  E(RHF) =  -698.282355107     A.U. after    8 cycles
 Optimization completed.
 SCF Done:  E(RHF) =  -698.284677633     A.U. after    9 cycles
 SCF Done:  E(RHF) =  -698.284711646     A.U. after    8 cycles
 SCF Done:  E(RHF) =  -698.284711744     A.U. after    6 cycles
 SCF Done:  E(RHF) =  -698.283525716     A.U. after    9 cycles
 SCF Done:  E(RHF) =  -698.285106418     A.U. after    9 cycles
 SCF Done:  E(RHF) =  -698.285140483     A.U. after    8 cycles
    -- Stationary point found.
 SCF Done:  E(RHF) =  -698.283711612     A.U. after    9 cycles
 SCF Done:  E(RHF) =  -698.285263450     A.U. after    9 cycles
 SCF Done:  E(RHF) =  -698.285296825     A.U. after    8 cycles
 SCF Done:  E(RHF) =  -698.285297126     A.U. after    7 cycles
 Optimization completed.
    -- Stationary point found.

                         Standard orientation:
 ---------------------------------------------------------------------
 Center     Atomic      Atomic             Coordinates (Angstroms)
 Number     Number       Type             X           Y           Z
 ---------------------------------------------------------------------
      1          6           0        1.129969   -0.633535   -0.000090
      2          1           0        1.079556   -1.283094   -0.869896
      3          1           0        1.079355   -1.283222    0.869586
      4          6           0       -0.054680    0.355952   -0.000117
      5          1           0       -0.002744    1.006404   -0.869997
      6          1           0       -0.002848    1.006102    0.869995
      7         14           0       -1.771163   -0.516284    0.000039
      8          1           0       -1.867291   -1.397717    1.208724
      9          1           0       -1.866737   -1.397614   -1.208734
     10          6           0       -3.217083    0.740885   -0.000001
     11          1           0       -3.176732    1.376275   -0.878099
     12          1           0       -4.172602    0.228398   -0.000190
     13          1           0       -3.176899    1.375939    0.878342
     14         14           0        2.844793    0.240057    0.000058
     15          1           0        3.960840   -0.756279   -0.000002
     16          1           0        2.982982    1.106123   -1.211887
     17          1           0        2.983067    1.106050    1.212046
 ---------------------------------------------------------------------

 The electronic state is 1-A.
 Alpha  occ. eigenvalues --  -68.77509 -68.77370 -11.22739 -11.22437 -11.21039
 Alpha  occ. eigenvalues --   -6.14012  -6.13905  -4.24523  -4.24516  -4.24447
 Alpha  occ. eigenvalues --   -4.24435  -4.24405  -4.24338  -1.02730  -0.94966
 Alpha  occ. eigenvalues --   -0.85183  -0.71415  -0.68514  -0.62040  -0.56232
 Alpha  occ. eigenvalues --   -0.56205  -0.52594  -0.50858  -0.49981  -0.46219
 Alpha  occ. eigenvalues --   -0.46192  -0.45169  -0.44063  -0.38285
 Alpha virt. eigenvalues --    0.14870   0.17323   0.18538   0.19566   0.20932
 Alpha virt. eigenvalues --    0.23034   0.25801   0.27156   0.27981   0.28298
 Alpha virt. eigenvalues --    0.30507   0.30621   0.31151   0.32354   0.32619

 Mulliken charges:
               1
     1  C   -0.684210
     2  H    0.184242
     3  H    0.184232
     4  C   -0.685206
     5  H    0.178041
     6  H    0.178009
     7  Si   1.086018
     8  H   -0.211238
     9  H   -0.211254
    10  C   -0.860564
    11  H    0.176689
    12  H    0.179992
    13  H    0.176683
    14  Si   0.907514
    15  H   -0.199746
    16  H   -0.199602
    17  H   -0.199602
 Sum of Mulliken charges =   0.00000

 Dipole moment (field-independent basis, Debye):
    X=             -0.6086    Y=              0.3488    Z=              0.0006  Tot=              0.7014
 Quadrupole moment (field-independent basis, Debye-Ang):
   XX=            -54.8148   YY=            -53.2397   ZZ=            -52.6625
   XY=             -1.9199   XZ=             -0.0004   YZ=             -0.0006

 Normal termination of Gaussian 09 at Tue Sep  6 18:25:22 2016.
