 Gaussian 09, Revision D.01,
 Gaussian 09:  EM64L-G09RevD.01 24-Apr-2013

 ---------------------------------------------
 # opt=modredundant hf/6-31g geom=connectivity
 ---------------------------------------------

 -------------------
 Title Card Required
 -------------------
 Symbolic Z-matrix:
 Charge =  0 Multiplicity = 1

 SCF Done:  E(RHF) =  -407.066685369     A.U. after   12 cycles
 SCF Done:  E(RHF) =  -407.070353418     A.U. after   11 cycles
 SCF Done:  E(RHF) =  -407.070649868     A.U. after   10 cycles
 SCF Done:  E(RHF) =  -407.070667702     A.U. after    9 cycles
 SCF Done:  E(RHF) =  -407.070670458     A.U. after    9 cycles
 SCF Done:  E(RHF) =  -407.070670795     A.U. after    8 cycles
 Optimization completed.
    -- Stationary point found.
 SCF Done:  E(RHF) =  -407.069703570     A.U. after   11 cycles
 SCF Done:  E(RHF) =  -407.070466737     A.U. after   10 cycles
 SCF Done:  E(RHF) =  -407.070532171     A.U. after    9 cycles
 SCF Done:  E(RHF) =  -407.070544597     A.U. after    9 cycles
 Optimization completed.
 SCF Done:  E(RHF) =  -407.068458197     A.U. after   11 cycles
 SCF Done:  E(RHF) =  -407.069394533     A.U. after   11 cycles
 SCF Done:  E(RHF) =  -407.069413058     A.U. after   10 cycles
 SCF Done:  E(RHF) =  -407.067884510     A.U. after   11 cycles
 SCF Done:  E(RHF) =  -407.068901640     A.U. after   11 cycles
 SCF Done:  E(RHF) =  -407.068924608     A.U. after   10 cycles
 SCF Done:  E(RHF) =  -407.068924829     A.U. after    8 cycles
    -- Stationary point found.
 SCF Done:  E(RHF) =  -407.067637465     A.U. after   11 cycles
 SCF Done:  E(RHF) =  -407.068717485     A.U. after   11 cycles
 SCF Done:  E(RHF) =  -407.068740488     A.U. after   10 cycles
 Optimization completed.
    -- Stationary point found.

                         Standard orientation:
 ---------------------------------------------------------------------
 Center     Atomic      Atomic             Coordinates (Angstroms)
 Number     Number       Type             X           Y           Z
 ---------------------------------------------------------------------
      1          6           0        2.051947    0.538565   -0.000041
      2          1           0        2.079692    1.174279    0.878285
      3          1           0        2.079405    1.173832   -0.878691
      4          1           0        2.946674   -0.073484   -0.000011
      5         14           0        0.481695   -0.555079    0.000074
      6          1           0        0.490686   -1.445796   -1.204047
      7          1           0        0.490621   -1.445606    1.204259
      8          6           0       -1.081475    0.537962   -0.000084
      9          1           0       -0.922715    1.605236    0.000149
     10          6           0       -2.330872    0.088732   -0.000047
     11          1           0       -2.567800   -0.960741   -0.000520
     12          1           0       -3.177889    0.751838    0.000569
 ---------------------------------------------------------------------

 The electronic state is 1-A.
 Alpha  occ. eigenvalues --  -68.77801 -11.23783 -11.22605 -11.20942  -6.14160
 Alpha  occ. eigenvalues --   -4.24703  -4.24675  -4.24610  -1.03843  -0.94947
 Alpha  occ. eigenvalues --   -0.79012  -0.69311  -0.62007  -0.57572  -0.56266
 Alpha  occ. eigenvalues --   -0.54446  -0.46574  -0.44268  -0.43059  -0.37066
 Alpha virt. eigenvalues --    0.14268   0.16825   0.19356   0.24852   0.27270
 Alpha virt. eigenvalues --    0.27619   0.29526   0.29602   0.30390   0.32605
 Alpha virt. eigenvalues --    0.38949   0.41383   0.41416   0.46285   0.53360

 Mulliken charges:
               1
     1  C   -0.860525
     2  H    0.179039
     3  H    0.179033
     4  H    0.180026
     5  Si   1.081010
     6  H   -0.203965
     7  H   -0.203966
     8  C   -0.548681
     9  H    0.171737
    10  C   -0.301388
    11  H    0.161894
    12  H    0.165786
 Sum of Mulliken charges =   0.00000

 Dipole moment (field-independent basis, Debye):
    X=             -0.1289    Y=              0.6270    Z=              0.0006  Tot=              0.6401
 Quadrupole moment (field-independent basis, Debye-Ang):
   XX=            -32.5949   YY=            -34.8381   ZZ=            -37.5466
   XY=              0.2187   XZ=             -0.0007   YZ=              0.0011

 Normal termination of Gaussian 09 at Wed Sep  7 11:33:02 2016.
